
 6 atoms
 6 atom types

 0.0000000000 3.55303545 xlo xhi
 0.0000000000 3.07701896 ylo yhi
 0.0000000000 100.0000000000 zlo zhi
 1.776517725 0.0000000000  0.0000000000 xy xz yz

 Masses 
 
1 95.94
2 127.6
3 127.6
4 183.84
5 78.96
6 78.96

 Atoms 

1 1 0.000000 0.000000 4.732341
2 2 3.553015 2.051334 6.544764
3 3 3.553015 2.051334 2.919915
4 4 0.000000 0.000000 11.532327
5 5 3.553015 2.051334 13.029136
6 6 3.553015 2.051334 10.035557
