Unloading /usr/local/share/epcc-module/epcc-module-loader

Warning: Unloading the epcc-setup-env module will stop many
modules being available on the system. If you do this by
accident, you can recover the situation with the command:

	module load /work/y07/shared/archer2-modules/modulefiles-cse/epcc-setup-env

Unloading /work/y07/shared/archer2-modules/modulefiles-cse/epcc-setup-env
Unloading bolt/0.7
Loading bolt/0.7
Loading /work/y07/shared/archer2-modules/modulefiles-cse/epcc-setup-env
Loading /usr/local/share/epcc-module/epcc-module-loader

Loading epcc-job-env
  Loading requirement: bolt/0.7
    /work/y07/shared/archer2-modules/modulefiles-cse/epcc-setup-env

     Program PWSCF v.6.6 starts on 12Oct2021 at 14:14:52 

     This program is part of the open-source Quantum ESPRESSO suite
     for quantum simulation of materials; please cite
         "P. Giannozzi et al., J. Phys.:Condens. Matter 21 395502 (2009);
         "P. Giannozzi et al., J. Phys.:Condens. Matter 29 465901 (2017);
          URL http://www.quantum-espresso.org", 
     in publications or presentations arising from this work. More details at
     http://www.quantum-espresso.org/quote

     Parallel version (MPI), running on    32 processors

     MPI processes distributed on     1 nodes
     R & G space division:  proc/nbgrp/npool/nimage =      32
     Fft bands division:     nmany     =       1
     Reading input from pw.in
Warning: card &CELL ignored
Warning: card  CELL_DYNAMICS='BFGS', ignored
Warning: card  CELL_DOFREE='2DXY' ignored
Warning: card  PRESS=0.0, ignored
Warning: card / ignored

     Current dimensions of program PWSCF are:
     Max number of different atomic species (ntypx) = 10
     Max number of k-points (npk) =  40000
     Max angular momentum in pseudopotentials (lmaxx) =  3

     IMPORTANT: XC functional enforced from input :
     Exchange-correlation= VDW-DF-C09
                           (   1   4  16   0   1   0   0)
     Any further DFT definition will be discarded
     Please, verify this is what you really want


     Subspace diagonalization in iterative solution of the eigenvalue problem:
     one sub-group per band group will be used
     scalapack distributed-memory algorithm (size of sub-group:  5*  5 procs)

     Message from routine setup:
     using ibrav=0 with symmetry is DISCOURAGED, use correct ibrav instead

     Parallelization info
     --------------------
     sticks:   dense  smooth     PW     G-vecs:    dense   smooth      PW
     Min          26      26      7                 4842     4842     755
     Max          27      27      8                 4893     4893     792
     Sum         859     859    253               155987   155987   25023



     bravais-lattice index     =            0
     lattice parameter (alat)  =       6.7142  a.u.
     unit-cell volume          =    1973.8808 (a.u.)^3
     number of atoms/cell      =            6
     number of atomic types    =            4
     number of electrons       =        92.00 (up:  46.00, down:  46.00)
     number of Kohn-Sham states=           46
     kinetic-energy cutoff     =      70.0000  Ry
     charge density cutoff     =     280.0000  Ry
     convergence threshold     =      1.0E-08
     mixing beta               =       0.3000
     number of iterations used =            8  plain     mixing
     Exchange-correlation= VDW-DF-C09
                           (   1   4  16   0   1   0   0)

     celldm(1)=   6.714229  celldm(2)=   0.000000  celldm(3)=   0.000000
     celldm(4)=   0.000000  celldm(5)=   0.000000  celldm(6)=   0.000000

     crystal axes: (cart. coord. in units of alat)
               a(1) = (   1.000000   0.000000   0.000000 )  
               a(2) = (   0.500000   0.866025   0.000000 )  
               a(3) = (   0.000000   0.000000   7.530120 )  

     reciprocal axes: (cart. coord. in units 2 pi/alat)
               b(1) = (  1.000000 -0.577350  0.000000 )  
               b(2) = (  0.000000  1.154701  0.000000 )  
               b(3) = (  0.000000  0.000000  0.132800 )  


     PseudoPot. # 1 for W  read from file:
     ./W.upf
     MD5 check sum: 75b1d432d85d028982bb81b068264ebf
     Pseudo is Norm-conserving + core correction, Zval = 14.0
     Generated using ONCVPSP code by D. R. Hamann
     Using radial grid of 1396 points,  8 beta functions with: 
                l(1) =   0
                l(2) =   0
                l(3) =   1
                l(4) =   1
                l(5) =   2
                l(6) =   2
                l(7) =   3
                l(8) =   3

     PseudoPot. # 2 for Se read from file:
     ./Se.upf
     MD5 check sum: cb2cefba1335ec1a0ef320de5a6fd81a
     Pseudo is Norm-conserving + core correction, Zval = 16.0
     Generated using ONCVPSP code by D. R. Hamann
     Using radial grid of 1214 points,  6 beta functions with: 
                l(1) =   0
                l(2) =   0
                l(3) =   1
                l(4) =   1
                l(5) =   2
                l(6) =   2

     PseudoPot. # 3 for Mo read from file:
     ./Mo.upf
     MD5 check sum: 4e1c3579de4f68baf863f15f5be96aa1
     Pseudo is Norm-conserving + core correction, Zval = 14.0
     Generated using ONCVPSP code by D. R. Hamann
     Using radial grid of 1640 points,  6 beta functions with: 
                l(1) =   0
                l(2) =   0
                l(3) =   1
                l(4) =   1
                l(5) =   2
                l(6) =   2

     PseudoPot. # 4 for Te read from file:
     ./Te.upf
     MD5 check sum: d198e370297ac1d7edee156d0fe975c4
     Pseudo is Norm-conserving + core correction, Zval = 16.0
     Generated using ONCVPSP code by D. R. Hamann
     Using radial grid of 1324 points,  6 beta functions with: 
                l(1) =   0
                l(2) =   0
                l(3) =   1
                l(4) =   1
                l(5) =   2
                l(6) =   2

     atomic species   valence    mass     pseudopotential
        W             14.00   183.84000     W ( 1.00)
        Se            16.00    78.96000     Se( 1.00)
        Mo            14.00    95.95000     Mo( 1.00)
        Te            16.00   127.60000     Te( 1.00)

     Starting magnetic structure 
     atomic species   magnetization
        W            0.000
        Se           0.000
        Mo           0.000
        Te           0.000

      6 Sym. Ops. (no inversion) found



   Cartesian axes

     site n.     atom                  positions (alat units)
         1           Mo  tau(   1) = (   0.0000000   0.0000000   1.3319220  )
         2           Te  tau(   2) = (   0.9999995   0.5773499   1.8420302  )
         3           Te  tau(   3) = (   0.9999995   0.5773499   0.8218129  )
         4           W   tau(   4) = (   0.9999995   0.5773499   3.2598572  )
         5           Se  tau(   5) = (   0.0000000   0.0000000   3.6811355  )
         6           Se  tau(   6) = (   0.0000000   0.0000000   2.8385898  )

     number of k points=    19
                       cart. coord. in units 2pi/alat
        k(    1) = (   0.0000000   0.0000000   0.0000000), wk =   0.0069444
        k(    2) = (   0.0000000   0.0962250   0.0000000), wk =   0.0416667
        k(    3) = (   0.0000000   0.1924501   0.0000000), wk =   0.0416667
        k(    4) = (   0.0000000   0.2886751   0.0000000), wk =   0.0416667
        k(    5) = (   0.0000000   0.3849002   0.0000000), wk =   0.0416667
        k(    6) = (   0.0000000   0.4811252   0.0000000), wk =   0.0416667
        k(    7) = (   0.0000000  -0.5773503   0.0000000), wk =   0.0208333
        k(    8) = (   0.0833333   0.1443376   0.0000000), wk =   0.0416667
        k(    9) = (   0.0833333   0.2405626   0.0000000), wk =   0.0833333
        k(   10) = (   0.0833333   0.3367877   0.0000000), wk =   0.0833333
        k(   11) = (   0.0833333   0.4330127   0.0000000), wk =   0.0833333
        k(   12) = (   0.0833333  -0.6254628   0.0000000), wk =   0.0833333
        k(   13) = (   0.1666667   0.2886751   0.0000000), wk =   0.0416667
        k(   14) = (   0.1666667   0.3849002   0.0000000), wk =   0.0833333
        k(   15) = (   0.1666667  -0.6735753   0.0000000), wk =   0.0833333
        k(   16) = (   0.1666667  -0.5773503   0.0000000), wk =   0.0416667
        k(   17) = (   0.2500000  -0.7216878   0.0000000), wk =   0.0416667
        k(   18) = (   0.2500000  -0.6254628   0.0000000), wk =   0.0833333
        k(   19) = (   0.3333333  -0.5773503   0.0000000), wk =   0.0138889

     Dense  grid:   155987 G-vectors     FFT dimensions: (  36,  36, 270)

     Estimated max dynamical RAM per process >      37.77 MB

     Estimated total dynamical RAM >       1.18 GB
     Generating pointlists ...
     new r_m :   0.2948 (alat units)  1.9795 (a.u.) for type    1
     new r_m :   0.2948 (alat units)  1.9795 (a.u.) for type    2
     new r_m :   0.3178 (alat units)  2.1338 (a.u.) for type    3
     new r_m :   0.3178 (alat units)  2.1338 (a.u.) for type    4

     Initial potential from superposition of free atoms

     starting charge   91.99746, renormalised to   92.00000


     %%%%%%%%%%%%%%%%%%%%%%%%%%%%%%%%%%%%%%%%%%%%%%%%%%%%%%%%%%%%%%%%%%%%%%%%
     %                                                                      %
     % You are using vdW-DF, which was implemented by the Thonhauser group. %
     % Please cite the following two papers that made this development      %
     % possible and the two reviews that describe the various versions:     %
     %                                                                      %
     %   T. Thonhauser et al., PRL 115, 136402 (2015).                      %
     %   T. Thonhauser et al., PRB 76, 125112 (2007).                       %
     %   K. Berland et al., Rep. Prog. Phys. 78, 066501 (2015).             %
     %   D.C. Langreth et al., J. Phys.: Condens. Matter 21, 084203 (2009). %
     %                                                                      %
     %                                                                      %
     % If you are calculating the stress with vdW-DF, please also cite:     %
     %                                                                      %
     %   R. Sabatini et al., J. Phys.: Condens. Matter 24, 424209 (2012).   %
     %                                                                      %
     %%%%%%%%%%%%%%%%%%%%%%%%%%%%%%%%%%%%%%%%%%%%%%%%%%%%%%%%%%%%%%%%%%%%%%%%


     Starting wfcs are   56 randomized atomic wfcs

     total cpu time spent up to now is        5.5 secs

     Self-consistent Calculation

     iteration #  1     ecut=    70.00 Ry     beta= 0.30
     Davidson diagonalization with overlap
     ethr =  1.00E-02,  avg # of iterations =  2.0

     Threshold (ethr) on eigenvalues was too large:
     Diagonalizing with lowered threshold

     Davidson diagonalization with overlap
     ethr =  2.84E-04,  avg # of iterations =  4.1

     total cpu time spent up to now is       12.0 secs

     total energy              =   -1194.97800222 Ry
     estimated scf accuracy    <       0.30054291 Ry

     total magnetization       =    -0.00 Bohr mag/cell
     absolute magnetization    =     0.00 Bohr mag/cell

     iteration #  2     ecut=    70.00 Ry     beta= 0.30
     Davidson diagonalization with overlap
     ethr =  3.27E-04,  avg # of iterations =  4.9

     total cpu time spent up to now is       15.6 secs

     total energy              =   -1195.00004559 Ry
     estimated scf accuracy    <       0.14718651 Ry

     total magnetization       =    -0.00 Bohr mag/cell
     absolute magnetization    =     0.01 Bohr mag/cell

     iteration #  3     ecut=    70.00 Ry     beta= 0.30
     Davidson diagonalization with overlap
     ethr =  1.60E-04,  avg # of iterations =  5.0

     total cpu time spent up to now is       19.0 secs

     total energy              =   -1195.01219809 Ry
     estimated scf accuracy    <       0.02424717 Ry

     total magnetization       =    -0.00 Bohr mag/cell
     absolute magnetization    =     0.00 Bohr mag/cell

     iteration #  4     ecut=    70.00 Ry     beta= 0.30
     Davidson diagonalization with overlap
     ethr =  2.64E-05,  avg # of iterations =  4.6

     total cpu time spent up to now is       22.5 secs

     total energy              =   -1195.01294230 Ry
     estimated scf accuracy    <       0.01171974 Ry

     total magnetization       =     0.00 Bohr mag/cell
     absolute magnetization    =     0.00 Bohr mag/cell

     iteration #  5     ecut=    70.00 Ry     beta= 0.30
     Davidson diagonalization with overlap
     ethr =  1.27E-05,  avg # of iterations =  5.9

     total cpu time spent up to now is       26.3 secs

     total energy              =   -1195.01403417 Ry
     estimated scf accuracy    <       0.00537616 Ry

     total magnetization       =     0.00 Bohr mag/cell
     absolute magnetization    =     0.00 Bohr mag/cell

     iteration #  6     ecut=    70.00 Ry     beta= 0.30
     Davidson diagonalization with overlap
     ethr =  5.84E-06,  avg # of iterations =  6.1

     total cpu time spent up to now is       30.3 secs

     total energy              =   -1195.01569361 Ry
     estimated scf accuracy    <       0.01078614 Ry

     total magnetization       =    -0.00 Bohr mag/cell
     absolute magnetization    =     0.00 Bohr mag/cell

     iteration #  7     ecut=    70.00 Ry     beta= 0.30
     Davidson diagonalization with overlap
     ethr =  5.84E-06,  avg # of iterations =  1.5

     total cpu time spent up to now is       32.9 secs

     total energy              =   -1195.01334576 Ry
     estimated scf accuracy    <       0.00749654 Ry

     total magnetization       =    -0.00 Bohr mag/cell
     absolute magnetization    =     0.00 Bohr mag/cell

     iteration #  8     ecut=    70.00 Ry     beta= 0.30
     Davidson diagonalization with overlap
     ethr =  5.84E-06,  avg # of iterations =  6.1

     total cpu time spent up to now is       37.1 secs

     total energy              =   -1195.01520986 Ry
     estimated scf accuracy    <       0.00344173 Ry

     total magnetization       =    -0.00 Bohr mag/cell
     absolute magnetization    =     0.00 Bohr mag/cell

     iteration #  9     ecut=    70.00 Ry     beta= 0.30
     Davidson diagonalization with overlap
     ethr =  3.74E-06,  avg # of iterations =  1.2

     total cpu time spent up to now is       39.6 secs

     total energy              =   -1195.01438778 Ry
     estimated scf accuracy    <       0.00234397 Ry

     total magnetization       =    -0.00 Bohr mag/cell
     absolute magnetization    =     0.00 Bohr mag/cell

     iteration # 10     ecut=    70.00 Ry     beta= 0.30
     Davidson diagonalization with overlap
     ethr =  2.55E-06,  avg # of iterations =  6.1

     total cpu time spent up to now is       43.8 secs

     total energy              =   -1195.01524774 Ry
     estimated scf accuracy    <       0.00237571 Ry

     total magnetization       =     0.00 Bohr mag/cell
     absolute magnetization    =     0.00 Bohr mag/cell

     iteration # 11     ecut=    70.00 Ry     beta= 0.30
     Davidson diagonalization with overlap
     ethr =  2.55E-06,  avg # of iterations =  1.0

     total cpu time spent up to now is       46.2 secs

     total energy              =   -1195.01485114 Ry
     estimated scf accuracy    <       0.00196582 Ry

     total magnetization       =     0.00 Bohr mag/cell
     absolute magnetization    =     0.00 Bohr mag/cell

     iteration # 12     ecut=    70.00 Ry     beta= 0.30
     Davidson diagonalization with overlap
     ethr =  2.14E-06,  avg # of iterations =  3.5

     total cpu time spent up to now is       49.4 secs

     total energy              =   -1195.01505985 Ry
     estimated scf accuracy    <       0.00007387 Ry

     total magnetization       =    -0.00 Bohr mag/cell
     absolute magnetization    =     0.00 Bohr mag/cell

     iteration # 13     ecut=    70.00 Ry     beta= 0.30
     Davidson diagonalization with overlap
     ethr =  8.03E-08,  avg # of iterations =  6.0

     total cpu time spent up to now is       53.6 secs

     total energy              =   -1195.01508416 Ry
     estimated scf accuracy    <       0.00000526 Ry

     total magnetization       =    -0.00 Bohr mag/cell
     absolute magnetization    =     0.00 Bohr mag/cell

     iteration # 14     ecut=    70.00 Ry     beta= 0.30
     Davidson diagonalization with overlap
     ethr =  5.71E-09,  avg # of iterations =  6.2

     total cpu time spent up to now is       58.1 secs

     total energy              =   -1195.01508888 Ry
     estimated scf accuracy    <       0.00001896 Ry

     total magnetization       =    -0.00 Bohr mag/cell
     absolute magnetization    =     0.00 Bohr mag/cell

     iteration # 15     ecut=    70.00 Ry     beta= 0.30
     Davidson diagonalization with overlap
     ethr =  5.71E-09,  avg # of iterations =  7.2

     total cpu time spent up to now is       63.0 secs

     total energy              =   -1195.01508351 Ry
     estimated scf accuracy    <       0.00009288 Ry

     total magnetization       =     0.00 Bohr mag/cell
     absolute magnetization    =     0.00 Bohr mag/cell

     iteration # 16     ecut=    70.00 Ry     beta= 0.30
     Davidson diagonalization with overlap
     ethr =  5.71E-09,  avg # of iterations =  6.2

     total cpu time spent up to now is       67.3 secs

     total energy              =   -1195.01508386 Ry
     estimated scf accuracy    <       0.00001986 Ry

     total magnetization       =    -0.00 Bohr mag/cell
     absolute magnetization    =     0.00 Bohr mag/cell

     iteration # 17     ecut=    70.00 Ry     beta= 0.30
     Davidson diagonalization with overlap
     ethr =  5.71E-09,  avg # of iterations =  4.7

     total cpu time spent up to now is       70.8 secs

     total energy              =   -1195.01508416 Ry
     estimated scf accuracy    <       0.00000352 Ry

     total magnetization       =     0.00 Bohr mag/cell
     absolute magnetization    =     0.00 Bohr mag/cell

     iteration # 18     ecut=    70.00 Ry     beta= 0.30
     Davidson diagonalization with overlap
     ethr =  3.83E-09,  avg # of iterations =  5.6

     total cpu time spent up to now is       74.6 secs

     total energy              =   -1195.01508464 Ry
     estimated scf accuracy    <       0.00000015 Ry

     total magnetization       =     0.00 Bohr mag/cell
     absolute magnetization    =     0.00 Bohr mag/cell

     iteration # 19     ecut=    70.00 Ry     beta= 0.30
     Davidson diagonalization with overlap
     ethr =  1.67E-10,  avg # of iterations =  6.3

     total cpu time spent up to now is       79.3 secs

     total energy              =   -1195.01508464 Ry
     estimated scf accuracy    <       0.00000110 Ry

     total magnetization       =    -0.00 Bohr mag/cell
     absolute magnetization    =     0.00 Bohr mag/cell

     iteration # 20     ecut=    70.00 Ry     beta= 0.30
     Davidson diagonalization with overlap
     ethr =  1.67E-10,  avg # of iterations =  5.4

     total cpu time spent up to now is       83.3 secs

     total energy              =   -1195.01508468 Ry
     estimated scf accuracy    <       0.00000012 Ry

     total magnetization       =     0.00 Bohr mag/cell
     absolute magnetization    =     0.00 Bohr mag/cell

     iteration # 21     ecut=    70.00 Ry     beta= 0.30
     Davidson diagonalization with overlap
     ethr =  1.32E-10,  avg # of iterations =  4.5

     Magnetic moment per site:
     atom:    1    charge:   11.6739    magn:   -0.0000    constr:    0.0000
     atom:    2    charge:   13.2340    magn:    0.0000    constr:    0.0000
     atom:    3    charge:   13.2367    magn:   -0.0000    constr:    0.0000
     atom:    4    charge:   10.7829    magn:    0.0000    constr:    0.0000
     atom:    5    charge:   13.9041    magn:   -0.0000    constr:    0.0000
     atom:    6    charge:   13.9006    magn:   -0.0000    constr:    0.0000

     total cpu time spent up to now is       86.7 secs

     End of self-consistent calculation

 ------ SPIN UP ------------


          k = 0.0000 0.0000 0.0000 ( 19413 PWs)   bands (ev):

   -71.1524 -57.3267 -44.4783 -44.4783 -44.4640 -44.4640 -44.4181 -44.4180
   -44.3997 -44.3997 -44.3958 -44.3739 -36.0110 -36.0110 -35.9216 -32.9802
   -32.9802 -32.9671 -32.9671 -32.9187 -32.9187 -32.9074 -32.9074 -32.8991
   -32.8901 -31.5529 -31.4148 -31.4148 -11.9206 -10.1884  -9.2794  -8.3572
    -2.9521  -1.6241  -0.6123  -0.6123   0.7075   0.7076   1.1245   1.6218
     1.6218   2.0771   2.3979   2.3980   2.8641   3.4141

          k = 0.0000 0.0962 0.0000 ( 19445 PWs)   bands (ev):

   -71.1522 -57.3261 -44.4784 -44.4783 -44.4641 -44.4640 -44.4184 -44.4182
   -44.4000 -44.3999 -44.3955 -44.3736 -36.0183 -36.0127 -35.9200 -32.9794
   -32.9787 -32.9683 -32.9658 -32.9193 -32.9191 -32.9095 -32.9076 -32.8985
   -32.8894 -31.5482 -31.4234 -31.4163 -11.8442 -10.1627  -9.1868  -8.2930
    -2.8578  -1.5227  -0.8456  -0.5323   0.4136   0.5758   1.1627   1.4103
     1.6986   1.9821   2.2712   2.5293   2.8447   3.2550

          k = 0.0000 0.1925 0.0000 ( 19473 PWs)   bands (ev):

   -71.1516 -57.3247 -44.4785 -44.4781 -44.4642 -44.4639 -44.4184 -44.4183
   -44.4000 -44.4000 -44.3952 -44.3735 -36.0381 -36.0172 -35.9158 -32.9772
   -32.9748 -32.9720 -32.9623 -32.9208 -32.9199 -32.9145 -32.9079 -32.8970
   -32.8875 -31.5354 -31.4470 -31.4205 -11.6283 -10.0907  -8.9179  -8.1070
    -2.6008  -1.3947  -1.2420  -0.3053  -0.0929   0.2593   0.8437   0.9038
     1.9135   1.9160   1.9607   2.5068   2.6852   2.8338

          k = 0.0000 0.2887 0.0000 ( 19477 PWs)   bands (ev):

   -71.1508 -57.3227 -44.4779 -44.4777 -44.4636 -44.4635 -44.4185 -44.4184
   -44.4001 -44.4000 -44.3950 -44.3733 -36.0651 -36.0233 -35.9101 -32.9779
   -32.9740 -32.9694 -32.9575 -32.9229 -32.9212 -32.9202 -32.9083 -32.8952
   -32.8848 -31.5180 -31.4790 -31.4261 -11.3133  -9.9872  -8.5032  -7.8225
    -2.3824  -1.8714  -0.9377  -0.6101  -0.1028   0.0280   0.1003   0.3556
     1.5964   1.7420   2.1540   2.2201   2.2320   2.5119

          k = 0.0000 0.3849 0.0000 ( 19508 PWs)   bands (ev):

   -71.1500 -57.3207 -44.4782 -44.4774 -44.4639 -44.4631 -44.4185 -44.4185
   -44.4001 -44.4000 -44.3949 -44.3734 -36.0919 -36.0295 -35.9043 -32.9846
   -32.9708 -32.9643 -32.9528 -32.9255 -32.9247 -32.9217 -32.9088 -32.8936
   -32.8820 -31.5109 -31.5010 -31.4317 -10.9694  -9.8769  -8.0084  -7.4899
    -2.7662  -1.6880  -1.2062  -1.0758  -0.4114  -0.3555  -0.1738   0.3934
     1.2795   1.5579   1.7776   1.9164   2.3339   2.5713

          k = 0.0000 0.4811 0.0000 ( 19514 PWs)   bands (ev):

   -71.1494 -57.3192 -44.4780 -44.4771 -44.4638 -44.4628 -44.4186 -44.4185
   -44.4003 -44.4001 -44.3948 -44.3730 -36.1114 -36.0340 -35.9001 -32.9900
   -32.9683 -32.9606 -32.9493 -32.9284 -32.9260 -32.9222 -32.9091 -32.8926
   -32.8799 -31.5342 -31.4886 -31.4359 -10.6941  -9.7911  -7.5635  -7.2018
    -3.1545  -1.7818  -1.5552  -1.4604  -0.9522  -0.6132  -0.0373   0.6869
     1.0700   1.4783   1.6677   1.8330   2.4239   2.8324

          k = 0.0000-0.5774 0.0000 ( 19496 PWs)   bands (ev):

   -71.1491 -57.3187 -44.4779 -44.4766 -44.4636 -44.4624 -44.4185 -44.4183
   -44.4001 -44.3999 -44.3946 -44.3731 -36.1185 -36.0356 -35.8986 -32.9921
   -32.9674 -32.9593 -32.9481 -32.9294 -32.9264 -32.9224 -32.9092 -32.8923
   -32.8791 -31.5427 -31.4841 -31.4374 -10.5872  -9.7585  -7.3731  -7.0832
    -3.3001  -2.0653  -1.6774  -1.4461  -1.1661  -0.6830   0.0027   0.8001
     0.9982   1.4715   1.6196   1.9266   2.5374   2.9290

          k = 0.0833 0.1443 0.0000 ( 19455 PWs)   bands (ev):

   -71.1518 -57.3251 -44.4784 -44.4781 -44.4641 -44.4638 -44.4183 -44.4182
   -44.3999 -44.3999 -44.3953 -44.3735 -36.0315 -36.0161 -35.9172 -32.9778
   -32.9761 -32.9706 -32.9636 -32.9206 -32.9194 -32.9129 -32.9078 -32.8974
   -32.8881 -31.5394 -31.4391 -31.4196 -11.6980 -10.1138  -9.0060  -8.1678
    -2.6797  -1.3327  -1.2263  -0.3861   0.0837   0.2996   1.0314   1.0346
     1.8319   1.9318   1.9992   2.6258   2.7609   2.9655

          k = 0.0833 0.2406 0.0000 ( 19452 PWs)   bands (ev):

   -71.1511 -57.3234 -44.4780 -44.4775 -44.4638 -44.4633 -44.4185 -44.4182
   -44.4001 -44.3998 -44.3948 -44.3731 -36.0540 -36.0223 -35.9122 -32.9753
   -32.9746 -32.9717 -32.9598 -32.9229 -32.9199 -32.9181 -32.9083 -32.8958
   -32.8858 -31.5243 -31.4658 -31.4255 -11.4319 -10.0256  -8.6632  -7.9316
    -2.3900  -1.7560  -1.0160  -0.4098  -0.1380  -0.0542   0.4084   0.6707
     1.4326   1.9517   2.0171   2.3669   2.5405   2.6625

          k = 0.0833 0.3368 0.0000 ( 19519 PWs)   bands (ev):

   -71.1503 -57.3214 -44.4782 -44.4776 -44.4639 -44.4633 -44.4188 -44.4185
   -44.4003 -44.4001 -44.3951 -44.3734 -36.0798 -36.0296 -35.9064 -32.9812
   -32.9715 -32.9667 -32.9555 -32.9255 -32.9233 -32.9199 -32.9089 -32.8942
   -32.8831 -31.5072 -31.4965 -31.4324 -11.1002  -9.9175  -8.2045  -7.6194
    -2.5018  -1.8196  -1.0403  -0.8054  -0.3426  -0.1187   0.0310   0.1338
     1.0840   1.7675   1.9148   2.0289   2.2045   2.6368

          k = 0.0833 0.4330 0.0000 ( 19531 PWs)   bands (ev):

   -71.1495 -57.3197 -44.4781 -44.4773 -44.4639 -44.4631 -44.4188 -44.4184
   -44.4003 -44.4001 -44.3950 -44.3732 -36.1020 -36.0359 -35.9014 -32.9872
   -32.9685 -32.9623 -32.9518 -32.9279 -32.9268 -32.9199 -32.9094 -32.8931
   -32.8807 -31.5230 -31.4925 -31.4384 -10.7863  -9.8174  -7.7230  -7.3006
    -2.9256  -1.5692  -1.4928  -1.3740  -0.6832  -0.4984  -0.0439   0.3341
     0.9314   1.5694   1.7553   1.8953   1.9887   2.8199

          k = 0.0833-0.6255 0.0000 ( 19550 PWs)   bands (ev):

   -71.1491 -57.3187 -44.4781 -44.4772 -44.4638 -44.4629 -44.4190 -44.4186
   -44.4004 -44.4002 -44.3948 -44.3732 -36.1147 -36.0395 -35.8986 -32.9909
   -32.9667 -32.9598 -32.9497 -32.9292 -32.9284 -32.9197 -32.9096 -32.8925
   -32.8793 -31.5383 -31.4841 -31.4419 -10.5910  -9.7565  -7.3873  -7.0869
    -3.1800  -1.9132  -1.7571  -1.4293  -1.1013  -0.5847   0.0281   0.4569
     0.8763   1.4677   1.6658   1.9275   2.0634   2.9725

          k = 0.1667 0.2887 0.0000 ( 19473 PWs)   bands (ev):

   -71.1504 -57.3217 -44.4779 -44.4774 -44.4637 -44.4632 -44.4185 -44.4182
   -44.4000 -44.3998 -44.3947 -44.3730 -36.0736 -36.0313 -35.9072 -32.9794
   -32.9712 -32.9680 -32.9571 -32.9261 -32.9223 -32.9190 -32.9091 -32.8944
   -32.8834 -31.5094 -31.4893 -31.4346 -11.1473  -9.9317  -8.2737  -7.6652
    -2.3376  -1.9022  -0.9663  -0.7589  -0.3179  -0.0439   0.0160   0.3030
     0.8228   1.7902   1.9165   1.9880   2.4436   2.6887

          k = 0.1667 0.3849 0.0000 ( 19547 PWs)   bands (ev):

   -71.1497 -57.3199 -44.4782 -44.4777 -44.4640 -44.4635 -44.4188 -44.4182
   -44.4002 -44.3998 -44.3952 -44.3735 -36.0923 -36.0412 -35.9022 -32.9842
   -32.9676 -32.9641 -32.9547 -32.9296 -32.9252 -32.9178 -32.9100 -32.8934
   -32.8812 -31.5118 -31.4947 -31.4447 -10.8404  -9.8311  -7.8163  -7.3571
    -2.6531  -1.6135  -1.5013  -1.0302  -0.4568  -0.3532  -0.0943   0.0453
     0.6216   1.3835   1.7174   1.8092   2.1266   2.8126

          k = 0.1667-0.6736 0.0000 ( 19574 PWs)   bands (ev):

   -71.1491 -57.3187 -44.4783 -44.4775 -44.4641 -44.4633 -44.4190 -44.4183
   -44.4003 -44.4000 -44.3950 -44.3734 -36.1055 -36.0488 -35.8986 -32.9881
   -32.9654 -32.9607 -32.9529 -32.9323 -32.9267 -32.9166 -32.9107 -32.8929
   -32.8795 -31.5278 -31.4840 -31.4524 -10.5984  -9.7524  -7.4152  -7.0941
    -2.8860  -1.8941  -1.5545  -1.3740  -0.9281  -0.4322  -0.2063   0.1115
     0.6005   1.1957   1.4922   1.7678   1.9462   2.9544

          k = 0.1667-0.5774 0.0000 ( 19587 PWs)   bands (ev):

   -71.1489 -57.3182 -44.4785 -44.4772 -44.4642 -44.4630 -44.4191 -44.4183
   -44.4004 -44.4000 -44.3951 -44.3735 -36.1103 -36.0516 -35.8972 -32.9896
   -32.9647 -32.9593 -32.9523 -32.9334 -32.9272 -32.9161 -32.9109 -32.8929
   -32.8789 -31.5336 -31.4801 -31.4553 -10.5055  -9.7224  -7.2476  -6.9871
    -2.9670  -2.0340  -1.7411  -1.3786  -1.1278  -0.4192  -0.2357   0.0950
     0.6138   1.1861   1.3926   1.6473   2.0546   3.0575

          k = 0.2500-0.7217 0.0000 ( 19597 PWs)   bands (ev):

   -71.1491 -57.3187 -44.4784 -44.4777 -44.4642 -44.4635 -44.4193 -44.4184
   -44.4005 -44.4001 -44.3951 -44.3735 -36.0995 -36.0548 -35.8986 -32.9866
   -32.9648 -32.9611 -32.9547 -32.9336 -32.9259 -32.9154 -32.9113 -32.8932
   -32.8797 -31.5213 -31.4840 -31.4590 -10.6021  -9.7504  -7.4287  -7.0977
    -2.6916  -1.9506  -1.4395  -1.2152  -0.8097  -0.5637  -0.3639   0.2239
     0.4409   0.6701   1.5004   1.8238   1.9578   2.9358

          k = 0.2500-0.6255 0.0000 ( 19593 PWs)   bands (ev):

   -71.1488 -57.3179 -44.4784 -44.4776 -44.4641 -44.4634 -44.4191 -44.4181
   -44.4003 -44.3998 -44.3950 -44.3734 -36.1017 -36.0647 -35.8965 -32.9880
   -32.9640 -32.9580 -32.9548 -32.9364 -32.9259 -32.9138 -32.9121 -32.8932
   -32.8789 -31.5250 -31.4778 -31.4690 -10.4582  -9.7009  -7.1748  -6.9297
    -2.6299  -2.2071  -1.4296  -1.2749  -1.0968  -0.8966  -0.2699   0.0188
     0.4092   0.4830   1.3031   1.6205   2.1651   3.1204

          k = 0.3333-0.5774 0.0000 ( 19611 PWs)   bands (ev):

   -71.1487 -57.3177 -44.4781 -44.4777 -44.4638 -44.4634 -44.4195 -44.4184
   -44.4005 -44.4001 -44.3950 -44.3735 -36.0962 -36.0746 -35.8957 -32.9877
   -32.9638 -32.9562 -32.9557 -32.9383 -32.9254 -32.9127 -32.9126 -32.8935
   -32.8786 -31.5212 -31.4778 -31.4755 -10.4064  -9.6812  -7.0837  -6.8663
    -2.3785  -2.3230  -1.5072  -1.2085  -1.1664  -0.9737  -0.4695  -0.1700
     0.3461   0.4084   1.2046   1.5354   2.3605   3.2443

 ------ SPIN DOWN ----------


          k = 0.0000 0.0000 0.0000 ( 19413 PWs)   bands (ev):

   -71.1524 -57.3267 -44.4783 -44.4783 -44.4640 -44.4640 -44.4181 -44.4180
   -44.3997 -44.3997 -44.3958 -44.3739 -36.0110 -36.0110 -35.9216 -32.9802
   -32.9802 -32.9671 -32.9671 -32.9187 -32.9187 -32.9074 -32.9074 -32.8991
   -32.8901 -31.5529 -31.4148 -31.4148 -11.9206 -10.1884  -9.2794  -8.3572
    -2.9521  -1.6241  -0.6123  -0.6123   0.7075   0.7076   1.1245   1.6218
     1.6218   2.0771   2.3979   2.3980   2.8641   3.4141

          k = 0.0000 0.0962 0.0000 ( 19445 PWs)   bands (ev):

   -71.1522 -57.3261 -44.4784 -44.4783 -44.4641 -44.4640 -44.4184 -44.4182
   -44.4000 -44.3999 -44.3955 -44.3736 -36.0183 -36.0127 -35.9200 -32.9794
   -32.9787 -32.9683 -32.9658 -32.9193 -32.9191 -32.9095 -32.9076 -32.8985
   -32.8894 -31.5482 -31.4234 -31.4163 -11.8443 -10.1627  -9.1868  -8.2930
    -2.8578  -1.5227  -0.8456  -0.5323   0.4136   0.5758   1.1627   1.4103
     1.6986   1.9821   2.2712   2.5293   2.8447   3.2550

          k = 0.0000 0.1925 0.0000 ( 19473 PWs)   bands (ev):

   -71.1516 -57.3247 -44.4785 -44.4781 -44.4642 -44.4639 -44.4184 -44.4183
   -44.4000 -44.4000 -44.3952 -44.3735 -36.0381 -36.0172 -35.9158 -32.9772
   -32.9748 -32.9720 -32.9623 -32.9208 -32.9199 -32.9145 -32.9079 -32.8970
   -32.8875 -31.5354 -31.4470 -31.4205 -11.6283 -10.0907  -8.9179  -8.1070
    -2.6008  -1.3947  -1.2420  -0.3053  -0.0929   0.2593   0.8437   0.9038
     1.9134   1.9160   1.9607   2.5068   2.6852   2.8338

          k = 0.0000 0.2887 0.0000 ( 19477 PWs)   bands (ev):

   -71.1508 -57.3227 -44.4779 -44.4777 -44.4636 -44.4635 -44.4185 -44.4184
   -44.4001 -44.4000 -44.3950 -44.3733 -36.0651 -36.0233 -35.9101 -32.9779
   -32.9740 -32.9694 -32.9575 -32.9229 -32.9212 -32.9202 -32.9083 -32.8952
   -32.8848 -31.5180 -31.4790 -31.4261 -11.3133  -9.9873  -8.5032  -7.8226
    -2.3824  -1.8714  -0.9377  -0.6101  -0.1028   0.0280   0.1003   0.3556
     1.5964   1.7420   2.1540   2.2201   2.2320   2.5119

          k = 0.0000 0.3849 0.0000 ( 19508 PWs)   bands (ev):

   -71.1500 -57.3207 -44.4782 -44.4774 -44.4639 -44.4631 -44.4185 -44.4185
   -44.4001 -44.4000 -44.3949 -44.3734 -36.0919 -36.0295 -35.9043 -32.9846
   -32.9708 -32.9643 -32.9528 -32.9255 -32.9248 -32.9217 -32.9088 -32.8936
   -32.8820 -31.5109 -31.5010 -31.4317 -10.9694  -9.8770  -8.0084  -7.4899
    -2.7662  -1.6880  -1.2062  -1.0758  -0.4114  -0.3555  -0.1738   0.3934
     1.2795   1.5579   1.7776   1.9164   2.3340   2.5713

          k = 0.0000 0.4811 0.0000 ( 19514 PWs)   bands (ev):

   -71.1493 -57.3192 -44.4780 -44.4771 -44.4638 -44.4628 -44.4186 -44.4185
   -44.4003 -44.4001 -44.3948 -44.3730 -36.1114 -36.0339 -35.9001 -32.9900
   -32.9683 -32.9606 -32.9493 -32.9284 -32.9260 -32.9222 -32.9091 -32.8926
   -32.8799 -31.5342 -31.4886 -31.4359 -10.6941  -9.7911  -7.5635  -7.2018
    -3.1545  -1.7818  -1.5552  -1.4604  -0.9522  -0.6132  -0.0373   0.6869
     1.0701   1.4783   1.6677   1.8330   2.4239   2.8324

          k = 0.0000-0.5774 0.0000 ( 19496 PWs)   bands (ev):

   -71.1491 -57.3187 -44.4779 -44.4766 -44.4636 -44.4624 -44.4185 -44.4183
   -44.4001 -44.3999 -44.3946 -44.3731 -36.1185 -36.0356 -35.8986 -32.9921
   -32.9674 -32.9593 -32.9481 -32.9294 -32.9264 -32.9224 -32.9092 -32.8923
   -32.8791 -31.5427 -31.4841 -31.4373 -10.5872  -9.7585  -7.3731  -7.0832
    -3.3001  -2.0653  -1.6774  -1.4461  -1.1661  -0.6830   0.0027   0.8001
     0.9982   1.4715   1.6196   1.9266   2.5374   2.9290

          k = 0.0833 0.1443 0.0000 ( 19455 PWs)   bands (ev):

   -71.1518 -57.3251 -44.4784 -44.4781 -44.4641 -44.4638 -44.4183 -44.4182
   -44.3999 -44.3999 -44.3953 -44.3735 -36.0315 -36.0161 -35.9172 -32.9778
   -32.9761 -32.9706 -32.9636 -32.9206 -32.9194 -32.9129 -32.9078 -32.8974
   -32.8881 -31.5394 -31.4391 -31.4195 -11.6980 -10.1138  -9.0060  -8.1678
    -2.6797  -1.3327  -1.2263  -0.3861   0.0837   0.2996   1.0314   1.0346
     1.8319   1.9319   1.9992   2.6258   2.7609   2.9655

          k = 0.0833 0.2406 0.0000 ( 19452 PWs)   bands (ev):

   -71.1511 -57.3234 -44.4780 -44.4775 -44.4638 -44.4633 -44.4185 -44.4182
   -44.4001 -44.3998 -44.3948 -44.3731 -36.0540 -36.0223 -35.9122 -32.9754
   -32.9746 -32.9717 -32.9598 -32.9229 -32.9199 -32.9181 -32.9083 -32.8958
   -32.8858 -31.5243 -31.4658 -31.4255 -11.4319 -10.0256  -8.6632  -7.9316
    -2.3900  -1.7560  -1.0160  -0.4098  -0.1380  -0.0542   0.4084   0.6707
     1.4326   1.9517   2.0171   2.3669   2.5405   2.6625

          k = 0.0833 0.3368 0.0000 ( 19519 PWs)   bands (ev):

   -71.1503 -57.3214 -44.4782 -44.4776 -44.4639 -44.4633 -44.4188 -44.4185
   -44.4003 -44.4001 -44.3951 -44.3734 -36.0798 -36.0296 -35.9064 -32.9812
   -32.9715 -32.9667 -32.9555 -32.9255 -32.9233 -32.9199 -32.9089 -32.8942
   -32.8831 -31.5072 -31.4965 -31.4324 -11.1002  -9.9175  -8.2045  -7.6195
    -2.5018  -1.8196  -1.0403  -0.8054  -0.3426  -0.1187   0.0310   0.1338
     1.0840   1.7675   1.9148   2.0289   2.2045   2.6368

          k = 0.0833 0.4330 0.0000 ( 19531 PWs)   bands (ev):

   -71.1495 -57.3197 -44.4781 -44.4773 -44.4639 -44.4631 -44.4188 -44.4184
   -44.4003 -44.4001 -44.3950 -44.3732 -36.1019 -36.0359 -35.9014 -32.9872
   -32.9685 -32.9623 -32.9518 -32.9279 -32.9268 -32.9199 -32.9094 -32.8931
   -32.8807 -31.5230 -31.4925 -31.4384 -10.7863  -9.8174  -7.7230  -7.3006
    -2.9256  -1.5692  -1.4928  -1.3740  -0.6832  -0.4984  -0.0439   0.3341
     0.9314   1.5694   1.7553   1.8953   1.9887   2.8199

          k = 0.0833-0.6255 0.0000 ( 19550 PWs)   bands (ev):

   -71.1491 -57.3187 -44.4781 -44.4772 -44.4638 -44.4629 -44.4190 -44.4186
   -44.4004 -44.4002 -44.3948 -44.3732 -36.1147 -36.0395 -35.8986 -32.9909
   -32.9667 -32.9598 -32.9497 -32.9292 -32.9284 -32.9197 -32.9096 -32.8925
   -32.8793 -31.5382 -31.4841 -31.4419 -10.5910  -9.7565  -7.3873  -7.0869
    -3.1800  -1.9132  -1.7571  -1.4293  -1.1013  -0.5847   0.0281   0.4569
     0.8763   1.4677   1.6658   1.9275   2.0634   2.9725

          k = 0.1667 0.2887 0.0000 ( 19473 PWs)   bands (ev):

   -71.1504 -57.3217 -44.4779 -44.4774 -44.4637 -44.4632 -44.4185 -44.4182
   -44.4000 -44.3998 -44.3947 -44.3730 -36.0736 -36.0313 -35.9072 -32.9794
   -32.9712 -32.9680 -32.9571 -32.9261 -32.9223 -32.9190 -32.9091 -32.8944
   -32.8834 -31.5094 -31.4893 -31.4346 -11.1473  -9.9317  -8.2737  -7.6652
    -2.3376  -1.9022  -0.9663  -0.7589  -0.3179  -0.0439   0.0160   0.3030
     0.8228   1.7902   1.9165   1.9880   2.4436   2.6887

          k = 0.1667 0.3849 0.0000 ( 19547 PWs)   bands (ev):

   -71.1496 -57.3199 -44.4782 -44.4777 -44.4640 -44.4635 -44.4188 -44.4182
   -44.4002 -44.3998 -44.3952 -44.3735 -36.0923 -36.0412 -35.9022 -32.9842
   -32.9676 -32.9641 -32.9547 -32.9296 -32.9252 -32.9178 -32.9100 -32.8934
   -32.8812 -31.5118 -31.4947 -31.4447 -10.8404  -9.8311  -7.8163  -7.3571
    -2.6531  -1.6135  -1.5013  -1.0302  -0.4568  -0.3532  -0.0943   0.0453
     0.6216   1.3835   1.7174   1.8092   2.1266   2.8127

          k = 0.1667-0.6736 0.0000 ( 19574 PWs)   bands (ev):

   -71.1491 -57.3187 -44.4783 -44.4775 -44.4641 -44.4633 -44.4190 -44.4183
   -44.4003 -44.4000 -44.3950 -44.3734 -36.1055 -36.0488 -35.8986 -32.9881
   -32.9654 -32.9607 -32.9529 -32.9323 -32.9267 -32.9166 -32.9107 -32.8929
   -32.8795 -31.5278 -31.4840 -31.4524 -10.5984  -9.7524  -7.4152  -7.0941
    -2.8860  -1.8941  -1.5545  -1.3740  -0.9281  -0.4322  -0.2063   0.1115
     0.6005   1.1957   1.4922   1.7678   1.9462   2.9545

          k = 0.1667-0.5774 0.0000 ( 19587 PWs)   bands (ev):

   -71.1489 -57.3182 -44.4785 -44.4772 -44.4642 -44.4630 -44.4191 -44.4183
   -44.4004 -44.4000 -44.3951 -44.3735 -36.1103 -36.0516 -35.8972 -32.9896
   -32.9647 -32.9593 -32.9523 -32.9334 -32.9272 -32.9161 -32.9109 -32.8929
   -32.8789 -31.5336 -31.4801 -31.4553 -10.5055  -9.7224  -7.2476  -6.9871
    -2.9670  -2.0340  -1.7411  -1.3786  -1.1278  -0.4192  -0.2357   0.0950
     0.6138   1.1861   1.3926   1.6473   2.0546   3.0576

          k = 0.2500-0.7217 0.0000 ( 19597 PWs)   bands (ev):

   -71.1491 -57.3187 -44.4784 -44.4777 -44.4642 -44.4635 -44.4193 -44.4184
   -44.4005 -44.4001 -44.3951 -44.3735 -36.0995 -36.0548 -35.8986 -32.9866
   -32.9648 -32.9611 -32.9547 -32.9336 -32.9259 -32.9154 -32.9113 -32.8932
   -32.8797 -31.5213 -31.4840 -31.4589 -10.6021  -9.7504  -7.4288  -7.0977
    -2.6916  -1.9506  -1.4395  -1.2152  -0.8097  -0.5637  -0.3639   0.2239
     0.4409   0.6701   1.5004   1.8238   1.9578   2.9358

          k = 0.2500-0.6255 0.0000 ( 19593 PWs)   bands (ev):

   -71.1488 -57.3179 -44.4784 -44.4776 -44.4641 -44.4634 -44.4191 -44.4181
   -44.4003 -44.3998 -44.3950 -44.3734 -36.1017 -36.0647 -35.8965 -32.9880
   -32.9640 -32.9580 -32.9548 -32.9364 -32.9259 -32.9138 -32.9121 -32.8932
   -32.8789 -31.5249 -31.4778 -31.4690 -10.4582  -9.7009  -7.1748  -6.9298
    -2.6299  -2.2071  -1.4296  -1.2749  -1.0968  -0.8966  -0.2699   0.0188
     0.4092   0.4830   1.3031   1.6205   2.1651   3.1204

          k = 0.3333-0.5774 0.0000 ( 19611 PWs)   bands (ev):

   -71.1487 -57.3177 -44.4781 -44.4777 -44.4638 -44.4635 -44.4195 -44.4184
   -44.4005 -44.4001 -44.3950 -44.3735 -36.0962 -36.0746 -35.8957 -32.9877
   -32.9638 -32.9562 -32.9557 -32.9383 -32.9254 -32.9127 -32.9126 -32.8935
   -32.8786 -31.5212 -31.4778 -31.4755 -10.4064  -9.6812  -7.0837  -6.8663
    -2.3785  -2.3230  -1.5072  -1.2085  -1.1664  -0.9737  -0.4695  -0.1700
     0.3461   0.4084   1.2046   1.5354   2.3605   3.2443

     highest occupied level (ev):     3.4141

!    total energy              =   -1195.01508468 Ry
     estimated scf accuracy    <          7.9E-09 Ry

     The total energy is the sum of the following terms:
     one-electron contribution =   -6786.16097580 Ry
     hartree contribution      =    3395.44447329 Ry
     xc contribution           =    -247.25512546 Ry
     ewald contribution        =    2442.95654328 Ry

     total magnetization       =     0.00 Bohr mag/cell
     absolute magnetization    =     0.00 Bohr mag/cell

     convergence has been achieved in  21 iterations

     Writing output data file ./mote2_wse2.save/

     init_run     :      4.74s CPU      4.78s WALL (       1 calls)
     electrons    :     80.57s CPU     81.27s WALL (       1 calls)

     Called by init_run:
     wfcinit      :      1.12s CPU      1.14s WALL (       1 calls)
     potinit      :      3.24s CPU      3.25s WALL (       1 calls)
     hinit0       :      0.35s CPU      0.35s WALL (       1 calls)

     Called by electrons:
     c_bands      :     72.75s CPU     73.18s WALL (      22 calls)
     sum_band     :      6.31s CPU      6.40s WALL (      22 calls)
     v_of_rho     :      4.43s CPU      4.55s WALL (      22 calls)
     mix_rho      :      0.13s CPU      0.13s WALL (      22 calls)
     vdW_kernel   :      3.00s CPU      3.01s WALL (       1 calls)

     Called by c_bands:
     init_us_2    :      0.95s CPU      0.97s WALL (    1710 calls)
     cegterg      :     70.10s CPU     70.51s WALL (     836 calls)

     Called by *egterg:
     cdiaghg      :     17.28s CPU     17.33s WALL (    4748 calls)
     h_psi        :     40.87s CPU     41.23s WALL (    4824 calls)
     g_psi        :      0.09s CPU      0.09s WALL (    3950 calls)

     Called by h_psi:
     h_psi:calbec :      5.12s CPU      5.17s WALL (    4824 calls)
     vloc_psi     :     31.48s CPU     31.75s WALL (    4824 calls)
     add_vuspsi   :      3.88s CPU      3.91s WALL (    4824 calls)

     General routines
     calbec       :      5.11s CPU      5.16s WALL (    4824 calls)
     fft          :      0.68s CPU      0.69s WALL (    1826 calls)
     ffts         :      0.01s CPU      0.01s WALL (      44 calls)
     fftw         :     34.51s CPU     34.83s WALL (  241306 calls)

     Parallel routines
     fft_scatt_xy :      2.55s CPU      2.57s WALL (  243176 calls)
     fft_scatt_yz :     16.97s CPU     17.15s WALL (  243176 calls)

     PWSCF        :   1m26.33s CPU   1m28.10s WALL


   This run was terminated on:  14:16:20  12Oct2021            

=------------------------------------------------------------------------------=
   JOB DONE.
=------------------------------------------------------------------------------=
Note: The following floating-point exceptions are signalling: IEEE_UNDERFLOW_FLAG IEEE_DENORMAL
Note: The following floating-point exceptions are signalling: IEEE_UNDERFLOW_FLAG IEEE_DENORMAL
Note: The following floating-point exceptions are signalling: IEEE_UNDERFLOW_FLAG IEEE_DENORMAL
Note: The following floating-point exceptions are signalling: IEEE_UNDERFLOW_FLAG IEEE_DENORMAL
Note: The following floating-point exceptions are signalling: IEEE_UNDERFLOW_FLAG IEEE_DENORMAL
Note: The following floating-point exceptions are signalling: IEEE_UNDERFLOW_FLAG IEEE_DENORMAL
Note: The following floating-point exceptions are signalling: IEEE_UNDERFLOW_FLAG IEEE_DENORMAL
Note: The following floating-point exceptions are signalling: IEEE_UNDERFLOW_FLAG IEEE_DENORMAL
Note: The following floating-point exceptions are signalling: IEEE_UNDERFLOW_FLAG IEEE_DENORMAL
Note: The following floating-point exceptions are signalling: IEEE_UNDERFLOW_FLAG IEEE_DENORMAL
Note: The following floating-point exceptions are signalling: IEEE_UNDERFLOW_FLAG IEEE_DENORMAL
Note: The following floating-point exceptions are signalling: IEEE_UNDERFLOW_FLAG IEEE_DENORMAL
Note: The following floating-point exceptions are signalling: IEEE_UNDERFLOW_FLAG IEEE_DENORMAL
Note: The following floating-point exceptions are signalling: IEEE_UNDERFLOW_FLAG IEEE_DENORMAL
Note: The following floating-point exceptions are signalling: IEEE_UNDERFLOW_FLAG IEEE_DENORMAL
Note: The following floating-point exceptions are signalling: IEEE_UNDERFLOW_FLAG IEEE_DENORMAL
Note: The following floating-point exceptions are signalling: IEEE_UNDERFLOW_FLAG IEEE_DENORMAL
Note: The following floating-point exceptions are signalling: IEEE_UNDERFLOW_FLAG IEEE_DENORMAL
Note: The following floating-point exceptions are signalling: IEEE_UNDERFLOW_FLAG IEEE_DENORMAL
Note: The following floating-point exceptions are signalling: IEEE_UNDERFLOW_FLAG IEEE_DENORMAL
Note: The following floating-point exceptions are signalling: IEEE_UNDERFLOW_FLAG IEEE_DENORMAL
Note: The following floating-point exceptions are signalling: IEEE_UNDERFLOW_FLAG IEEE_DENORMAL
Note: The following floating-point exceptions are signalling: IEEE_UNDERFLOW_FLAG IEEE_DENORMAL
Note: The following floating-point exceptions are signalling: IEEE_UNDERFLOW_FLAG IEEE_DENORMAL
Note: The following floating-point exceptions are signalling: IEEE_UNDERFLOW_FLAG IEEE_DENORMAL
Note: The following floating-point exceptions are signalling: IEEE_UNDERFLOW_FLAG IEEE_DENORMAL
Note: The following floating-point exceptions are signalling: IEEE_UNDERFLOW_FLAG IEEE_DENORMAL
Note: The following floating-point exceptions are signalling: IEEE_UNDERFLOW_FLAG IEEE_DENORMAL
Note: The following floating-point exceptions are signalling: IEEE_UNDERFLOW_FLAG IEEE_DENORMAL
Note: The following floating-point exceptions are signalling: IEEE_UNDERFLOW_FLAG IEEE_DENORMAL
Note: The following floating-point exceptions are signalling: IEEE_UNDERFLOW_FLAG IEEE_DENORMAL
Note: The following floating-point exceptions are signalling: IEEE_UNDERFLOW_FLAG IEEE_DENORMAL
